% Model:              epfl-radiation-v2.mph
% Version:            COMSOL 6.0.0.354
% Date:               May 4 2022, 09:40
% Dimension:          1
% Nodes:              416
% Expressions:        4
% Description:        Table graph
% Time (s)                Electric field norm (V/m), Point: (0, 0, 2*a) Electric field, x component (V/m), Point: (0, 0, 2*a) Electric field norm (V/m), Point: (0, 0, 3*a) Electric field, x component (V/m), Point: (0, 0, 3*a)
0                         1.219462685983123E-32    -1.066072851151762E-32   3.09091926952419E-42     -3.017678938188088E-42
4.0000000000000004E-11    2.160127585225542E-29    6.553204503125145E-30    4.0473552881896754E-38   -2.259545450920483E-38
1.2E-10                   1.6614203387678934E-23   1.215304252299539E-23    1.4766525642241783E-32   -9.322936096688649E-33
2.0E-10                   5.424424407817463E-22    4.0635184888276314E-22   4.107172285236183E-31    -2.777713254039894E-31
2.8E-10                   9.989867575122894E-21    7.651778601218757E-21    7.026038515137418E-30    -5.3218909745285085E-30
3.6E-10                   1.4269582003792356E-19   1.1075773797207717E-19   1.055980464888877E-28    -8.977610520963026E-29
4.4000000000000003E-10    1.7740025545808853E-18   1.3784443124968264E-18   1.5092217782483864E-27   -1.3855384438387032E-27
5.200000000000001E-10     1.9928604831509873E-17   1.531241885344091E-17    1.9968789119566229E-26   -1.909900469233877E-26
6.000000000000001E-10     2.0374556965509723E-16   1.5263926935943403E-16   2.3834064919400663E-25   -2.3269076705490333E-25
6.800000000000001E-10     1.889217485682776E-15    1.3511447815735985E-15   2.5488390605069712E-24   -2.5144552454173223E-24
7.600000000000002E-10     1.5785744011280276E-14   1.0371905234412181E-14   2.45188370179658E-23     -2.4320158295516885E-23
8.400000000000002E-10     1.1849450300615267E-13   6.586775916945319E-14    2.1396904398449064E-22   -2.1284050612668835E-22
9.200000000000002E-10     8.081510000425532E-13    3.045656065889321E-13    1.7106037121936493E-21   -1.7038757135221294E-21
1.0000000000000003E-9     5.250144608035539E-12    4.1505447873789923E-13   1.2647359529264727E-20   -1.2603535792341523E-20
1.0800000000000002E-9     3.544791219051782E-11    -1.0761877908756468E-11  8.720533295138336E-20    -8.690767040433928E-20
1.1600000000000001E-9     2.5719646858995344E-10   -1.5942226565706649E-10  5.647949382097319E-19    -5.628553410814663E-19
1.24E-9                   1.870178391371392E-9     -1.4979737640670826E-9   3.4568067089549413E-18   -3.4452621833398E-18
1.32E-9                   1.2761582835642527E-8    -1.13789822783856E-8     2.0096378714372057E-17   -2.0033763050312347E-17
1.4E-9                    7.991389924404807E-8     -7.49333251247794E-8     1.1145077150714117E-16   -1.1113066107563953E-16
1.4799999999999999E-9     4.5884151340335887E-7    -4.415999548715468E-7    5.917203139739109E-16    -5.900939766500061E-16
1.5599999999999998E-9     2.428855482053646E-6     -2.3718542500904343E-6   3.0164002379892987E-15   -3.0078607060577526E-15
1.6399999999999997E-9     1.1930376088444319E-5    -1.1750854370768222E-5   1.4799713958844775E-14   -1.475352155722681E-14
1.7199999999999996E-9     5.470120963518379E-5     -5.4162196453412275E-5   7.003311355466738E-14    -6.978420142265915E-14
1.7999999999999996E-9     2.3528351470683561E-4    -2.3373580731151706E-4   3.20199563898619E-13     -3.189054239484299E-13
1.8799999999999997E-9     9.531275777949453E-4     -9.488589920827057E-4    1.41677184368967E-12     -1.4103859938016636E-12
1.96E-9                   0.0036471329637569484    -0.00363577807449102     6.075167203460673E-12    -6.045376272240363E-12
2.04E-9                   0.013208736019419996     -0.013179541278345516    2.5277778911780163E-11   -2.514604669431558E-11
2.12E-9                   0.045329433499922966     -0.045257000713765184    1.0216849917680603E-10   -1.0161376868261748E-10
2.2000000000000003E-9     0.14746454589077282      -0.14729225970316678     4.0152257275686616E-10   -3.992875598050326E-10
2.2800000000000004E-9     0.45466132378143886      -0.45427297699035296     1.5356411403340492E-9    -1.5269924713552186E-9
2.3600000000000005E-9     1.3275606429463325       -1.326744703667718       5.719953194296377E-9     -5.687716081120492E-9
2.4400000000000007E-9     3.6665780354154194       -3.6650151723286637      2.0764569144932647E-8    -2.0648565153193918E-8
2.520000000000001E-9      9.563245432994227        -9.560599591064511       7.35112216432537E-8      -7.31074757114713E-8
2.600000000000001E-9      23.50815459850722        -23.504380528198723      2.539338514495789E-7     -2.525723966340744E-7
2.680000000000001E-9      54.33294839995649        -54.328773677682165      8.562829545531086E-7     -8.518277194813975E-7
2.7600000000000012E-9     117.73872309990787       -117.73555154803138      2.819609156596358E-6     -2.805438948694918E-6
2.8400000000000014E-9     238.42687927869247       -238.42370581272183      9.06833191501362E-6      -9.024470127900555E-6
2.9200000000000015E-9     449.4510647051397        -449.43374601844306      2.848839663968676E-5     -2.8356143426709146E-5
3.0000000000000016E-9     785.0311611297154        -784.9488807627597       8.741523483657751E-5     -8.702660752839778E-5
3.0800000000000018E-9     1263.3694411271415       -1263.0987790379645      2.6193997305551386E-4    -2.608271239893226E-4
3.160000000000002E-9      1860.4225515111432       -1859.7334664156629      7.662494982555386E-4     -7.631459358779677E-4
3.240000000000002E-9      2485.3181018305495       -2483.8702349792593      0.0021872245609379608    -0.0021788037952772403
3.320000000000002E-9      2979.468811276952        -2976.8591593104184      0.006088589699903015     -0.006066393067538645
3.4000000000000023E-9     3163.435417472528        -3159.2717891196635      0.016517007086677835     -0.01646026460924421
3.4800000000000025E-9     2934.540863369962        -2928.4534026299116      0.043628919770213694     -0.04348852577036147
3.5600000000000026E-9     2372.694127819762        -2364.2298767225566      0.11210579068109117      -0.11177031756493008
3.6400000000000027E-9     1769.1168966727512       -1757.9653729557003      0.27990867956786375      -0.2791363111299662
3.720000000000003E-9      1504.598652453863        -1492.7611064862463      0.6782687211186067       -0.6765595012588608
3.800000000000003E-9      1809.8923500065707       -1801.6840289859374      1.5928664130704135       -1.5892397479912246
3.880000000000002E-9      2571.3044275646166       -2566.9699836526215      3.619678798044579        -3.612318759955667
3.960000000000002E-9      3364.4618244855665       -3361.9537384372206      7.945342508459599        -7.931091270484118
4.040000000000002E-9      3776.2228828292477       -3773.5323476445674      16.81333518353057        -16.787069943743166
4.1200000000000015E-9     3767.7188698230357       -3761.69789641983        34.2244223146174         -34.17845412119862
4.200000000000001E-9      3712.8231805335213       -3698.2823293505317      66.84692015187558        -66.77068682768764
4.280000000000001E-9      4013.239876383342        -3991.6014790108684      124.93100683469672       -124.81142284289217
4.360000000000001E-9      4674.822454226752        -4657.7473305142485      222.69636280054212       -222.5190933606146
4.44E-9                   5333.0584593185995       -5324.888818976233       377.2344093333997        -376.9858890214615
4.52E-9                   5700.865290397433        -5696.015474928883       604.6477257079489        -604.3169014267561
4.6E-9                    5926.064109494563        -5916.721897885422       912.3981378677568        -911.9759777887664
4.6799999999999996E-9     6387.050123667466        -6363.964911507623       1288.2725535433797       -1287.7470578092227
4.759999999999999E-9      7150.312922473929        -7118.494632378362       1689.3675242468448       -1688.7131333960517
4.839999999999999E-9      7876.4999258745265       -7852.636635464851       2038.3538094109088       -2037.5167046362048
4.919999999999999E-9      8334.71483137426         -8320.73770560075        2236.5007279410734       -2235.3833858512908
4.9999999999999985E-9     8765.838276261424        -8751.647933331613       2199.464928546824        -2197.9096762312493
5.079999999999998E-9      9554.192234379772        -9528.802392798909       1909.6172623723876       -1907.3756222689842
5.159999999999998E-9      10634.881268033507       -10597.930310069183      1460.2557006846257       -1456.9331672483631
5.239999999999998E-9      11549.799380680362       -11513.627590967255      1054.0183441152778       -1049.2407301080875
5.319999999999997E-9      12133.001719088816       -12102.527437403323      927.676745881071         -922.4843786489963
5.399999999999997E-9      12772.375084004478       -12741.20275610502       1222.6704550663753       -1219.3076471848121
5.479999999999997E-9      13837.086217454123       -13798.820907270325      1873.0509770676126       -1871.417009839864
5.5599999999999965E-9     15137.925459952163       -15093.62816609293       2598.5502872039156       -2597.6111875378847
5.639999999999996E-9      16247.516103022666       -16200.577879339216      3061.014342689428        -3059.9448294597287
5.719999999999996E-9      17158.154063957114       -17107.32579210822       3102.6282409464416       -3100.585680422138
5.799999999999996E-9      18246.385303040715       -18190.213044893775      2884.577523186154        -2880.3211934412316
5.879999999999995E-9      19655.709812136214       -19597.485151430108      2781.0076548174525       -2773.989386963694
5.959999999999995E-9      21102.143385598105       -21043.037113150534      3076.2459297486434       -3068.9496402055956
6.039999999999995E-9      22356.336662629645       -22290.247831839275      3719.2999423680612       -3714.386493778929
6.1199999999999946E-9     23592.01725769198        -23513.69300131312       4370.176223931858        -4367.264347378877
6.199999999999994E-9      25091.126585635135       -25006.11557132382       4722.117680037702        -4719.516754923107
6.279999999999994E-9      26831.348676080557       -26748.262663618625      4801.822223900555        -4797.39863353671
6.359999999999994E-9      28564.21696670821        -28479.153585711916      4930.429869929186        -4922.0425759033
6.4399999999999935E-9     30177.736964068354       -30079.309285562682      5374.1243375084405       -5363.300171365834
6.519999999999993E-9      31800.434510990915       -31686.9154066631        6067.929651875798        -6058.897621572952
6.599999999999993E-9      33575.51981338334        -33458.28262356456       6714.527532904215        -6708.36028168055
6.679999999999993E-9      35490.132274873555       -35374.06533366069       7131.364482500906        -7125.825586735545
6.759999999999992E-9      37454.48995013557        -37329.402586626835      7445.992342207608        -7437.552166637457
6.839999999999992E-9      39447.89722801461        -39304.522770272706      7918.543305684204        -7905.435650512304
6.919999999999992E-9      41502.44130821085        -41346.79872799628       8626.712442442084        -8612.332049889239
6.9999999999999915E-9     43597.931917444344       -43439.832396629194      9404.968382516628        -9393.223401215753
7.079999999999991E-9      45685.27292148788        -45521.11323083211       10075.23388486676        -10065.403266423495
7.159999999999991E-9      47803.54410373055        -47623.2047405952        10655.548665838147       -10643.551333697014
7.239999999999991E-9      50048.81918841274        -49852.22497801936       11302.799490582018       -11285.377902536999
7.3199999999999904E-9     52402.09854738689        -52196.108309392526      12099.74048570629        -12079.476582652433
7.39999999999999E-9       54720.809005767616       -54505.064246329974      12977.517004352989       -12959.632370651376
7.47999999999999E-9       56948.15211342561        -56717.398691974115      13837.291101722756       -13822.035624087343
7.55999999999999E-9       59199.41216868227        -58953.405114056004      14676.062008506437       -14659.044111835494
7.63999999999999E-9       61568.92752634415        -61309.960261722576      15565.454693090005       -15542.620299152542
7.719999999999989E-9      63979.090371598606       -63704.16744342392       16538.216249222995       -16510.984952793966
7.799999999999989E-9      66307.82943621906        -66014.74449220375       17548.263546583916       -17521.844434960432
7.879999999999989E-9      68570.17712327804        -68262.33198094585       18548.251894151028       -18523.98226579225
7.959999999999988E-9      70862.76243506833        -70541.09219178726       19564.964966302065       -19539.24471834824
8.039999999999988E-9      73183.17921141152        -72842.48632074427       20668.39453360044        -20637.643589341904
8.119999999999988E-9      75422.02191597548        -75059.83887314683       21867.856175537334       -21833.01368347829
8.199999999999987E-9      77533.68119999218        -77152.41508242568       23080.181614554174       -23044.750883717617
8.279999999999987E-9      79597.26078977714        -79196.32135292358       24232.16010185655        -24196.875264423845
8.359999999999987E-9      81657.66623032255        -81235.3236028644        25367.864451078785       -25330.428578867217
8.439999999999987E-9      83629.26490858929        -83189.14963846441       26601.994444224285       -26560.329076955233
8.519999999999986E-9      85447.26993066489        -84990.35079493833       27961.913225295128       -27916.733910367908
8.599999999999986E-9      87171.79189222837        -86688.69257953465       29340.253424186547       -29293.094609637534
8.679999999999986E-9      88818.33320162147        -88302.68608527191       30635.343889505315       -30585.959201604906
8.759999999999985E-9      90263.15015123838        -89723.73810013002       31884.168037038708       -31831.68444490737
8.839999999999985E-9      91470.37369068142        -90916.3798913724        33200.642701229175       -33145.24636046975
8.919999999999985E-9      92592.29681643104        -92016.96319248724       34613.07084711448        -34555.38308940472
8.999999999999985E-9      93673.04536952109        -93064.6771863041        36032.733863127105       -35971.91308581663
9.079999999999984E-9      94512.04755416271        -93871.64742767658       37380.42397276272        -37314.82117647159
9.159999999999984E-9      94995.37738436018        -94331.50788667332       38680.06451012465        -38609.93625247296
9.239999999999984E-9      95271.19993463239        -94584.43659863077       40003.498912957475       -39931.08697600943
9.319999999999984E-9      95436.32249378627        -94718.87777679032       41364.60431107109        -41290.575961726245
9.399999999999983E-9      95358.62276104388        -94605.76334217897       42703.628561710335       -42625.354483051575
9.479999999999983E-9      94943.59258448656        -94159.11121592254       43963.28860299016        -43878.17460600411
9.559999999999983E-9      94272.42873398772        -93461.65629232321       45150.58832473932        -45060.15744377395
9.639999999999982E-9      93380.43601866167        -92540.47037291952       46315.751355574146       -46224.00202478397
9.719999999999982E-9      92180.14292027387        -91301.66089213884       47481.659855193495       -47389.11268592344
9.799999999999982E-9      90651.7941596571         -89732.53824572674       48607.15465716944        -48509.38491019318
9.879999999999982E-9      88862.86265417308        -87910.71695217767       49626.47974750401        -49519.731425140904
9.959999999999981E-9      86793.34766155666        -85809.43852209054       50518.7422298957         -50405.3436186477
1.0039999999999981E-8     84349.74026359936        -83320.806063826         51326.29917651106        -51211.74182510691
1.011999999999998E-8      81534.04511758639        -80451.38394986239       52097.306126862175       -51982.38708706637
1.019999999999998E-8      78436.44852099188        -77308.2135303301        52815.021690552014       -52694.60212004011
1.027999999999998E-8      75089.32359795057        -73920.47254457677       53400.344097895446       -53270.41091882666
1.035999999999998E-8      71436.17471878744        -70212.54207261746       53794.370937180276       -53657.3844826495
1.043999999999998E-8      67414.54535529738        -66120.74384177539       54026.554017895316       -53887.487612076555
1.051999999999998E-8      63013.761843453816       -61647.625173936634      54175.33629018411        -54034.536831226455
1.0599999999999979E-8     58283.253693414204       -56837.06719173434       54259.66532090574        -54113.175734452314
1.0679999999999979E-8     53299.79642656243        -51746.760944589085      54202.775906956296       -54048.432435967436
1.0759999999999979E-8     48094.733095256764       -46408.62845518006       53919.49651696004        -53759.0578034154
1.0839999999999978E-8     42629.828698559206       -40793.88155720845       53408.1879192166         -53243.12652450181
1.0919999999999978E-8     36881.25596320734        -34852.40299489905       52728.51014175808        -52557.46083318422
1.0999999999999978E-8     30917.588295718037       -28587.538342843116      51914.683802261316       -51736.75208337499
1.1079999999999977E-8     24874.157784424784       -22054.539674918706      50947.00449537902        -50764.46112537534
1.1159999999999977E-8     18942.22454968065        -15295.59027061659       49790.974526340695       -49605.60928203719
1.1239999999999977E-8     13602.952884044535       -8319.094273375675       48422.49803447259        -48231.170225393456
1.1319999999999977E-8     10363.955330895089       -1135.4611998167072      46820.05082681347        -46617.44898109298
1.1399999999999976E-8     11632.356341480127       6228.064181682172        44973.37666551346        -44759.117966873
1.1479999999999976E-8     16626.64381349834        13749.432788537699       42909.00391365685        -42688.71337664953
1.1559999999999976E-8     23179.538640709794       21419.82246811242        40675.54111165166        -40452.7705962761
1.1639999999999976E-8     30382.93834186517        29226.05803795334        38283.29583800978        -38053.238247407506
1.1719999999999975E-8     37921.47761814486        37136.72504591975        35678.39045648202        -35432.37839956019
1.1799999999999975E-8     45647.89333912706        45101.69438521072        32801.633481687146       -32536.54502720223
1.1879999999999975E-8     53456.969141323316       53068.31172155696        29664.994241528024       -29384.882662934
1.1959999999999974E-8     61289.55881672302        61015.77700680324        26342.453698592326       -26048.46056186214
1.2039999999999974E-8     69144.51264538185        68959.60743793417        22879.022188611427       -22559.842841693204
1.2119999999999974E-8     77009.85280609874        76889.61382100929        19241.699866666182       -18876.007680117815
1.2199999999999974E-8     84802.0162928139         84726.31284951026        15387.212881509051       -14951.064930448452
1.2279999999999973E-8     92428.63919592992        92384.79918084112        11357.931602067125       -10814.040581601083
1.2359999999999973E-8     99875.87085104195        99854.76242418759        7306.6391266271285       -6532.168955510377
1.2439999999999973E-8     107173.09681213439       107165.91389822966       3754.6141319942476       -2114.805856721394
1.2519999999999972E-8     114303.87989544927       114303.03400963084       3863.149993343985        2488.28285440897
1.2599999999999972E-8     121201.74919937958       121201.18214640771       7799.207077643777        7288.233576232171
1.2679999999999972E-8     127799.10257233203       127793.45480923331       12479.943717357257       12217.04567567445
1.2759999999999972E-8     134045.59455935884       134030.17717417137       17367.023534348198       17212.697083003215
1.2839999999999971E-8     139916.42204567278       139887.1057184272        22390.364604287188       22292.476690572184
1.2919999999999971E-8     145424.73537792606       145377.49612349717       27562.82276830596        27499.57781141999
1.299999999999997E-8      150590.10718264303       150521.57707613637       32853.43869110268        32814.27303164521
1.307999999999997E-8      155382.3333803517        155290.0609644479        38190.2901707964         38167.42435263757
1.315999999999997E-8      159720.46899785407       159601.44787169906       43532.82655859304        43520.105406542185
1.323999999999997E-8      163528.74606937572       163379.2553271189        48886.64025745486        48880.26122353002
1.331999999999997E-8      166786.36033114602       166604.3777309016        54250.88691287382        54248.56233930377
1.339999999999997E-8      169532.77127254824       169317.7590806026        59593.53373069441        59593.22878689462
1.3479999999999969E-8     171815.2280561389        171564.3219042771        64882.988675303146       64882.879688014655
1.3559999999999969E-8     173614.99404842535       173323.44190309677       70107.65961954527        70106.4362735376
1.3639999999999969E-8     174853.15602646858       174519.70827939658       75248.77634619147        75245.28438550989
1.3719999999999968E-8     175485.27828892678       175112.1582354965        80260.33920174313        80253.3635150733
1.3799999999999968E-8     175538.09022870223       175124.28934966956       85100.69694631951        85089.37763407151
1.3879999999999968E-8     175033.71535154607       174573.4990621471        89770.91613512601        89754.89264202009
1.3959999999999968E-8     173951.60962268358       173440.6831513843        94292.55905164767        94271.3536012773
1.4039999999999967E-8     172291.8710960147        171730.80841290977       98646.44877065436        98619.10382141428
1.4119999999999967E-8     170097.37867378615       169488.03752026323       102761.96981935567       102727.59539565744
1.4199999999999967E-8     167384.10498426788       166725.5377061163        106578.08691594479       106536.43381727085
1.4279999999999966E-8     164118.55743185902       163407.0124834857        110089.74756508024       110040.87593780951
1.4359999999999966E-8     160285.39458139997       159516.7830725038        113319.26141665562       113262.83163686482
1.4439999999999966E-8     155923.73806456357       155095.58787713072       116269.40482253641       116204.679886329
1.4519999999999966E-8     151086.6057936982        150197.8689370676        118925.74270236099       118852.21596753076
1.4599999999999965E-8     145800.11297044248       144849.45680318633       121273.53356237002       121191.16361957767
1.4679999999999965E-8     140065.52346231218       139050.108825552         123277.74297051907       123186.60951293148
1.4759999999999965E-8     133887.45525197437       132803.01105416278       124872.38347366125       124772.55390658957
1.4839999999999964E-8     127301.05452584676       126142.56995515771       126013.16713227132       125904.72559935036
1.4919999999999964E-8     120363.48302170367       119125.12678598322       126726.15945262436       126608.69928156059
1.4999999999999966E-8     113114.02098909108       111787.8027654149        127066.91604490392       126939.19416457484
1.5079999999999967E-8     105565.14217697077       104141.06444243292       127050.67486624238       126911.78187196126
1.5159999999999968E-8     97739.09770521274        96207.76982763741        126661.36798218594       126512.44915440746
1.523999999999997E-8      89685.60955391751        88036.65301296407        125898.30907062942       125741.76549806967
1.531999999999997E-8      81459.2564155612         79672.46106230955        124753.3876251359        124589.66714333906
1.5399999999999972E-8     73105.19561695475        71145.78810011137        123162.85181242885       122989.32612964817
1.5479999999999974E-8     64668.584930832985       62493.834622405106       121056.65279151678       120870.63979467948
1.5559999999999975E-8     56202.01718287323        53763.30724228887        118462.04915166323       118264.24455417915
1.5639999999999977E-8     47771.49100755788        44992.54289981004        115500.52369803752       115294.04544818694
1.5719999999999978E-8     39470.42174560311        36205.288196428424       112268.12252569552       112054.31244238946
1.579999999999998E-8      31443.428996428196       27420.472924016853       108756.55928651826       108533.38380454869
1.587999999999998E-8      23970.432388017          18672.810037265277       104894.44553531735       104659.45038924519
1.5959999999999982E-8     17722.897650930423       10030.759934648235       100625.58732826417       100379.00478613665
1.6039999999999983E-8     14233.717168001614       1571.6425648851255       95942.74329995681        95686.34844816451
1.6119999999999985E-8     15212.145658438048       -6674.043447973283       90889.25585640465        90622.80531007505
1.6199999999999986E-8     19763.759997100868       -14721.705989132755      85550.75903807285        85271.284496711
1.6279999999999988E-8     25890.86076375426        -22568.57467931247       80018.37258309149        79723.5276851763
1.635999999999999E-8      32541.28285282799        -30175.714236542695      74330.11555132641        74020.87720574357
1.643999999999999E-8      39285.76986589367        -37516.48465338667       68451.3160948925         68129.3126417489
1.6519999999999992E-8     45942.57416919031        -44581.31855640605       62326.48202468594        61988.50890965952
1.6599999999999993E-8     52387.8059461901         -51320.39234707708       55950.27130903119        55587.66085894845
1.6679999999999995E-8     58491.60463276366        -57638.689553865916      49386.16449087559        48990.75307359367
1.6759999999999996E-8     64165.006699165235       -63473.500019705476      42728.81220081328        42296.91415923254
1.6839999999999997E-8     69410.5605435769         -68848.0028508139        36058.36326512659        35583.771072339805
1.692E-8                  74294.8723731831         -73837.86356464186       29415.25095860388        28875.887313340776
1.7E-8                    78873.18166961665        -78500.4930364577        22800.28184509648        22148.34872051317
1.708E-8                  83133.94279792404        -82828.69358702636       16223.188928793896       15363.634045223274
1.7160000000000003E-8     86996.85754896715        -86748.59441077997       9865.943980924956        8525.44481573125
1.7240000000000004E-8     90361.12098272883        -90162.32322260173       4997.748943946865        1705.6788253961113
1.7320000000000006E-8     93170.41865087439        -93012.69218219268       6679.533837916576        -4991.337871533054
1.7400000000000007E-8     95446.36714418908        -95321.15983297897       12238.63936109209        -11502.345634967623
1.7480000000000008E-8     97268.43610594973        -97169.48489929635       18265.492237734652       -17843.081344474005
1.756000000000001E-8      98719.32810645038        -98642.71847368786       24338.00153518338        -24066.770887482933
1.764000000000001E-8      99831.49162303965        -99773.86862419092       30369.482368012923       -30183.57163214917
1.7720000000000012E-8     100569.96787644057       -100527.7496200186       36260.49511024027        -36128.47172192967
1.7800000000000014E-8     100869.25023376588       -100839.22348835645      41906.63701381007        -41812.64463916482
1.7880000000000015E-8     100692.08411627011       -100671.74101232117      47261.08643512022        -47195.150001888
1.7960000000000017E-8     100052.10650797447       -100039.30066423866      52338.88661300992        -52292.870555584705
1.8040000000000018E-8     98995.51242798944        -98988.22326787247       57164.35922364439        -57131.93392528722
1.812000000000002E-8      97585.80234331099        -97582.27270854001       61732.52418537696        -61709.78682498584
1.820000000000002E-8      95894.4648725587         -95893.25989336704       66013.84474461034        -65998.72342203003
1.8280000000000022E-8     93962.07176249406        -93961.95145205964       69971.0363246136         -69961.96906386103
1.8360000000000023E-8     91755.90288839454        -91755.76894013702       73570.15893400196        -73565.37864610484
1.8440000000000025E-8     89201.44099632754        -89200.357918433         76799.2659585795         -76797.09250389563
1.8520000000000026E-8     86280.7601729018         -86277.86614079122       79681.72321459744        -79680.97827439915
1.8600000000000028E-8     83081.05664741764        -83075.48376919891       82249.24190768978        -82249.15722153886
1.868000000000003E-8      79723.04267209666        -79714.10444559828       84494.31712945699        -84494.23299376422
1.876000000000003E-8      76254.06060700832        -76241.45370019956       86370.85401947872        -86370.1354318796
1.8840000000000032E-8     72636.23950945231        -72619.75338079524       87852.396629082          -87850.54985488846
1.8920000000000033E-8     68829.703881108          -68808.78141627586       88968.32916415505        -88965.0240123019
1.9000000000000034E-8     64852.37894883147        -64826.24024992138       89765.6333643482         -89760.57947205548
1.9080000000000036E-8     60755.30506065978        -60723.32536711009       90252.16485828214        -90245.05162551746
1.9160000000000037E-8     56579.16692534088        -56540.908690307566      90399.81373516306        -90390.4035503433
1.924000000000004E-8      52355.1338646185         -52310.26670211849       90193.68743338667        -90181.87675507771