% Model:              nearField2.mph
% Version:            COMSOL 5.6.0.401
% Date:               Nov 15 2021, 15:29
% Dimension:          1
% Nodes:              501
% Expressions:        2
% Description:        Table graph
% Time (s)                Electric field norm (V/m), Point: (0, 0, 1.3*a) Electric field, x component (V/m), Point: (0, 0, 1.3*a)
0                         9.75398780243446E-15     -9.75398780243446E-15
4.0000000000000004E-11    3.943996735984132E-13    -3.943996735984132E-13
7.600000000000001E-11     4.7654812979660864E-12   -4.7654812979660864E-12
1.1200000000000001E-10    2.5996182105376077E-11   2.5996182105376077E-11
1.48E-10                  1.4525136222956777E-11   -1.4525136222956777E-11
1.84E-10                  5.687021463145009E-10    -5.687021463145009E-10
2.2000000000000002E-10    2.0894815228922005E-9    -2.0894815228922005E-9
2.5600000000000005E-10    8.920492557525989E-9     -8.920492557525989E-9
2.92E-10                  4.0383158183965996E-8    -4.0383158183965996E-8
3.28E-10                  1.3054444040573422E-7    -1.3054444040573422E-7
3.64E-10                  3.0168069070322465E-7    -3.0168069070322465E-7
3.9999999999999996E-10    6.197617901671568E-7     -6.197617901671568E-7
4.3599999999999994E-10    1.6258430957208412E-6    -1.6258430957208412E-6
4.719999999999999E-10     5.1867157157165214E-6    -5.1867157157165214E-6
5.079999999999999E-10     1.4600183820954917E-5    -1.4600183820954917E-5
5.439999999999999E-10     3.181406021678749E-5     -3.181406021678749E-5
5.799999999999999E-10     5.240923189639844E-5     -5.240923189639844E-5
6.159999999999998E-10     6.595837227930227E-5     -6.595837227930227E-5
6.879999999999999E-10     1.4768384828348034E-4    -1.4768384828348034E-4
7.599999999999999E-10     7.437806526286329E-4     -7.437806526286329E-4
8.319999999999998E-10     0.002661968654716811     -0.002661968654716811
9.039999999999998E-10     0.0058816686162222       -0.0058816686162222
9.759999999999997E-10     0.010374542982270177     -0.010374542982270177
1.0479999999999997E-9     0.03024848087411073      -0.03024848087411073
1.1199999999999996E-9     0.11739133414632477      -0.11739133414632477
1.1999999999999996E-9     0.3623419332501615       -0.3623419332501615
1.2799999999999995E-9     0.7922484770138818       -0.7922484770138818
1.3599999999999994E-9     1.7821774973498916       -1.7821774973498916
1.4399999999999994E-9     5.38112279696174         -5.38112279696174
1.5199999999999993E-9     16.419073238827814       -16.419073238827814
1.5999999999999992E-9     42.18800326826147        -42.18800326826147
1.6799999999999992E-9     97.07324750068703        -97.07324750068703
1.759999999999999E-9      226.68802465660252       -226.68802465660252
1.839999999999999E-9      549.2882612175897        -549.2882612175897
1.919999999999999E-9      1265.6178198923085       -1265.6178198923085
1.9999999999999993E-9     2570.9531835328235       -2570.9531835328235
2.0799999999999994E-9     4483.056149062243        -4483.056149062243
2.1599999999999996E-9     6725.769529404341        -6725.769529404341
2.2399999999999997E-9     8813.530412647582        -8813.530412647582
2.32E-9                   10301.697236372576       -10301.697236372576
2.4E-9                    10990.974547861317       -10990.974547861317
2.48E-9                   10941.979719457202       -10941.979719457202
2.5600000000000003E-9     10392.760636840258       -10392.760636840258
2.6400000000000004E-9     9722.282165691644        -9722.282165691644
2.7200000000000005E-9     9381.10294863824         -9381.10294863824
2.8000000000000007E-9     9651.852462152954        -9651.852462152954
2.880000000000001E-9      10447.617497295825       -10447.617497295825
2.960000000000001E-9      11507.299949793294       -11507.299949793294
3.040000000000001E-9      12792.27107951078        -12792.27107951078
3.1200000000000012E-9     14445.390834435726       -14445.390834435726
3.2000000000000014E-9     16331.385038553171       -16331.385038553171
3.2800000000000015E-9     17997.827694662636       -17997.827694662636
3.3600000000000016E-9     19279.65272149958        -19279.65272149958
3.4400000000000018E-9     20588.783663340328       -20588.783663340328
3.520000000000002E-9      22359.187681559015       -22359.187681559015
3.600000000000002E-9      24534.534904979882       -24534.534904979882
3.680000000000002E-9      26849.418215103553       -26849.418215103553
3.760000000000002E-9      29262.7350902104         -29262.7350902104
3.840000000000002E-9      31832.320256546645       -31832.320256546645
3.920000000000001E-9      34486.079282744475       -34486.079282744475
4.000000000000001E-9      37202.32926681386        -37202.32926681386
4.080000000000001E-9      40163.382695718275       -40163.382695718275
4.1600000000000005E-9     43507.82122884573        -43507.82122884573
4.24E-9                   47127.199864907416       -47127.199864907416
4.32E-9                   50845.11012405282        -50845.11012405282
4.4E-9                    54644.912828094435       -54644.912828094435
4.4799999999999994E-9     58669.06388363684        -58669.06388363684
4.559999999999999E-9      63099.7674371025         -63099.7674371025
4.639999999999999E-9      67995.26865771486        -67995.26865771486
4.719999999999999E-9      73163.12769955547        -73163.12769955547
4.799999999999998E-9      78332.01763759408        -78332.01763759408
4.879999999999998E-9      83541.71343875116        -83541.71343875116
4.959999999999998E-9      89169.88661682975        -89169.88661682975
5.0399999999999975E-9     95442.86896496435        -95442.86896496435
5.119999999999997E-9      102127.21273439309       -102127.21273439309
5.199999999999997E-9      108888.45199765338       -108888.45199765338
5.279999999999997E-9      115773.14507981739       -115773.14507981739
5.359999999999996E-9      123082.29739795736       -123082.29739795736
5.439999999999996E-9      130867.57114330289       -130867.57114330289
5.519999999999996E-9      138865.5000661392        -138865.5000661392
5.5999999999999956E-9     146970.139859633         -146970.139859633
5.679999999999995E-9      155464.1089323178        -155464.1089323178
5.759999999999995E-9      164601.14612466638       -164601.14612466638
5.839999999999995E-9      174185.63332588787       -174185.63332588787
5.9199999999999944E-9     183818.92895189248       -183818.92895189248
5.999999999999994E-9      193437.75274359662       -193437.75274359662
6.079999999999994E-9      203359.00469413568       -203359.00469413568
6.159999999999994E-9      213844.57997015532       -213844.57997015532
6.239999999999993E-9      224825.95581483276       -224825.95581483276
6.319999999999993E-9      236036.41355189562       -236036.41355189562
6.399999999999993E-9      247263.86589329803       -247263.86589329803
6.4799999999999925E-9     258490.53179762734       -258490.53179762734
6.559999999999992E-9      269886.54301694094       -269886.54301694094
6.639999999999992E-9      281642.8579230403        -281642.8579230403
6.719999999999992E-9      293752.03701577627       -293752.03701577627
6.799999999999991E-9      305992.5871959389        -305992.5871959389
6.879999999999991E-9      318154.0003692912        -318154.0003692912
6.959999999999991E-9      330216.43405924586       -330216.43405924586
7.0399999999999906E-9     342290.49055453244       -342290.49055453244
7.11999999999999E-9       354438.1832666494        -354438.1832666494
7.19999999999999E-9       366575.7993649639        -366575.7993649639
7.27999999999999E-9       378539.8783601286        -378539.8783601286
7.3599999999999895E-9     390253.32891569147       -390253.32891569147
7.439999999999989E-9      401785.4662864991        -401785.4662864991
7.519999999999989E-9      413178.3543373258        -413178.3543373258
7.599999999999989E-9      424273.6617401319        -424273.6617401319
7.679999999999988E-9      434843.21786590636       -434843.21786590636
7.759999999999988E-9      444849.5220369609        -444849.5220369609
7.839999999999988E-9      454424.6866215918        -454424.6866215918
7.919999999999988E-9      463614.0527146135        -463614.0527146135
7.999999999999987E-9      472279.01836946514       -472279.01836946514
8.079999999999987E-9      480228.9604411463        -480228.9604411463
8.159999999999987E-9      487331.4327644995        -487331.4327644995
8.239999999999986E-9      493531.07336799824       -493531.07336799824
8.319999999999986E-9      498864.22984034946       -498864.22984034946
8.399999999999986E-9      503404.5622077644        -503404.5622077644
8.479999999999986E-9      507102.7342044587        -507102.7342044587
8.559999999999985E-9      509745.1566418007        -509745.1566418007
8.639999999999985E-9      511158.7938706003        -511158.7938706003
8.719999999999985E-9      511373.7413461035        -511373.7413461035
8.799999999999985E-9      510477.77535073453       -510477.77535073453
8.879999999999984E-9      508397.59906153835       -508397.59906153835
8.959999999999984E-9      504966.2675648132        -504966.2675648132
9.039999999999984E-9      500146.43933609274       -500146.43933609274
9.119999999999983E-9      494014.94268902275       -494014.94268902275
9.199999999999983E-9      486539.6402681278        -486539.6402681278
9.279999999999983E-9      477556.3420626517        -477556.3420626517
9.359999999999983E-9      467010.05085645977       -467010.05085645977
9.439999999999982E-9      455043.46051816904       -455043.46051816904
9.519999999999982E-9      441749.3429511083        -441749.3429511083
9.599999999999982E-9      426977.79089100996       -426977.79089100996
9.679999999999981E-9      410523.95116277935       -410523.95116277935
9.759999999999981E-9      392424.08527438116       -392424.08527438116
9.839999999999981E-9      372934.8067666656        -372934.8067666656
9.91999999999998E-9       352239.03880339116       -352239.03880339116
9.99999999999998E-9       330250.4356187872        -330250.4356187872
1.007999999999998E-8      306722.63999903237       -306722.63999903237
1.015999999999998E-8      281553.1868352946        -281553.1868352946
1.023999999999998E-8      254975.26884120004       -254975.26884120004
1.031999999999998E-8      227379.26781101173       -227379.26781101173
1.0399999999999979E-8     198913.7210850937        -198913.7210850937
1.0479999999999979E-8     169379.01811024224       -169379.01811024224
1.0559999999999978E-8     138591.25239098523       -138591.25239098523
1.0639999999999978E-8     106706.57972533448       -106706.57972533448
1.0719999999999978E-8     74051.75644137857        -74051.75644137857
1.0799999999999978E-8     40774.10901872926        -40774.10901872926
1.0879999999999977E-8     6854.461399556912        -6854.461399556912
1.0959999999999977E-8     27622.06196753773        27622.06196753773
1.1039999999999977E-8     62431.30247257365        62431.30247257365
1.1119999999999976E-8     97434.07828868144        97434.07828868144
1.1199999999999976E-8     132643.04354454123       132643.04354454123
1.1279999999999976E-8     169092.87839374557       169092.87839374557
1.1359999999999976E-8     205645.67987367994       205645.67987367994
1.1439999999999975E-8     241759.09721389101       241759.09721389101
1.1519999999999975E-8     277341.134808903         277341.134808903
1.1599999999999975E-8     312336.7528872847        312336.7528872847
1.1679999999999975E-8     346775.606363357         346775.606363357
1.1759999999999974E-8     380532.49450559047       380532.49450559047
1.1839999999999974E-8     413504.9719061665        413504.9719061665
1.1919999999999974E-8     445265.6606845167        445265.6606845167
1.1999999999999973E-8     475595.16639763577       475595.16639763577
1.2079999999999973E-8     504529.6125535514        504529.6125535514
1.2159999999999973E-8     532091.0352843419        532091.0352843419
1.2239999999999973E-8     558144.442496129         558144.442496129
1.2319999999999972E-8     582413.8947846056        582413.8947846056
1.2399999999999972E-8     604655.7830691596        604655.7830691596
1.2479999999999972E-8     624810.4497421526        624810.4497421526
1.2559999999999972E-8     642959.9043884836        642959.9043884836
1.2639999999999971E-8     659111.2335352114        659111.2335352114
1.2719999999999971E-8     673083.5010660599        673083.5010660599
1.279999999999997E-8      684675.5838919329        684675.5838919329
1.287999999999997E-8      693870.8706933076        693870.8706933076
1.295999999999997E-8      700764.081715103         700764.081715103
1.303999999999997E-8      705354.116448989         705354.116448989
1.311999999999997E-8      707553.8822432278        707553.8822432278
1.319999999999997E-8      707363.1228221308        707363.1228221308
1.3279999999999969E-8     704888.407764922         704888.407764922
1.3359999999999969E-8     700216.7736125469        700216.7736125469
1.3439999999999968E-8     693392.9280720078        693392.9280720078
1.3519999999999968E-8     684496.4314529722        684496.4314529722
1.3599999999999968E-8     673626.555599475         673626.555599475
1.3679999999999968E-8     660820.6983598962        660820.6983598962
1.3759999999999967E-8     646083.2593713426        646083.2593713426
1.3839999999999967E-8     629502.3733791747        629502.3733791747
1.3919999999999967E-8     611261.6982411429        611261.6982411429
1.3999999999999967E-8     591500.9735191797        591500.9735191797
1.4079999999999966E-8     570211.5875809101        570211.5875809101
1.4159999999999966E-8     547334.495487036         547334.495487036
1.4239999999999966E-8     522955.3296638076        522955.3296638076
1.4319999999999965E-8     497328.35070170666       497328.35070170666
1.4399999999999965E-8     470691.2439083525        470691.2439083525
1.4479999999999965E-8     443152.80830243125       443152.80830243125
1.4559999999999965E-8     414809.44493752293       414809.44493752293
1.4639999999999964E-8     385843.1445561772        385843.1445561772
1.4719999999999964E-8     356387.8165653           356387.8165653
1.4799999999999964E-8     326417.76280813105       326417.76280813105
1.4879999999999964E-8     295956.07933079137       295956.07933079137
1.4959999999999963E-8     265324.57737622934       265324.57737622934
1.5039999999999965E-8     234956.02274309535       234956.02274309535
1.5119999999999966E-8     204964.7225660961        204964.7225660961
1.5199999999999967E-8     175150.66531508035       175150.66531508035
1.527999999999997E-8      145481.23604224366       145481.23604224366
1.535999999999997E-8      116317.19221515459       116317.19221515459
1.543999999999997E-8      88042.30257581787        88042.30257581787
1.5519999999999973E-8     60691.52739323474        60691.52739323474
1.5599999999999974E-8     34121.97470160902        34121.97470160902
1.5679999999999976E-8     8392.654690812604        8392.654690812604
1.5759999999999977E-8     16228.573879318865       -16228.573879318865
1.583999999999998E-8      39557.496185811695       -39557.496185811695
1.591999999999998E-8      61605.6711565008         -61605.6711565008
1.599999999999998E-8      82409.41187251487        -82409.41187251487
1.6079999999999983E-8     101889.29657052367       -101889.29657052367
1.6159999999999984E-8     119913.52480257719       -119913.52480257719
1.6239999999999985E-8     136413.97269440367       -136413.97269440367
1.6319999999999987E-8     151395.48192412202       -151395.48192412202
1.6399999999999988E-8     164870.42045829355       -164870.42045829355
1.647999999999999E-8      176820.33016215748       -176820.33016215748
1.655999999999999E-8      187219.69534692797       -187219.69534692797
1.6639999999999992E-8     196078.10511870403       -196078.10511870403
1.6719999999999994E-8     203426.62405247634       -203426.62405247634
1.6799999999999995E-8     209254.24722147506       -209254.24722147506
1.6879999999999996E-8     213518.72436810547       -213518.72436810547
1.6959999999999998E-8     216264.33431516896       -216264.33431516896
1.704E-8                  217650.68922947842       -217650.68922947842
1.712E-8                  217783.74903488494       -217783.74903488494
1.7200000000000002E-8     216600.19391660884       -216600.19391660884
1.7280000000000003E-8     214029.4234520228        -214029.4234520228
1.7360000000000005E-8     210191.19730772506       -210191.19730772506
1.7440000000000006E-8     205296.81544670247       -205296.81544670247
1.7520000000000007E-8     199418.56720486813       -199418.56720486813
1.760000000000001E-8      192511.58113331848       -192511.58113331848
1.768000000000001E-8      184626.59302920455       -184626.59302920455
1.776000000000001E-8      175936.8823983621        -175936.8823983621
1.7840000000000013E-8     166550.81096299057       -166550.81096299057
1.7920000000000014E-8     156451.03484027978       -156451.03484027978
1.8000000000000016E-8     145664.54626781258       -145664.54626781258
1.8080000000000017E-8     134367.48084172703       -134367.48084172703
1.816000000000002E-8      122741.66310134152       -122741.66310134152
1.824000000000002E-8      110809.97260881479       -110809.97260881479
1.832000000000002E-8      98511.32759458557        -98511.32759458557
1.8400000000000022E-8     85903.41669717294        -85903.41669717294
1.8480000000000024E-8     73193.18068621281        -73193.18068621281
1.8560000000000025E-8     60553.126714692604       -60553.126714692604
1.8640000000000027E-8     47981.402065614464       -47981.402065614464
1.8720000000000028E-8     35392.14925489081        -35392.14925489081
1.880000000000003E-8      22811.68561269637        -22811.68561269637
1.888000000000003E-8      10422.69358703796        -10422.69358703796
1.8960000000000032E-8     1602.2885767959851       1602.2885767959851
1.9040000000000034E-8     13259.204471673977       13259.204471673977
1.9120000000000035E-8     24645.078284689323       24645.078284689323
1.9200000000000036E-8     35753.061258190246       35753.061258190246
1.9280000000000038E-8     46422.49224240455        46422.49224240455
1.936000000000004E-8      56520.51179997352        56520.51179997352
1.944000000000004E-8      66089.36590401328        66089.36590401328
1.9520000000000042E-8     75245.75493629383        75245.75493629383
1.9600000000000043E-8     83987.27305051364        83987.27305051364
1.9680000000000045E-8     92179.98739497885        92179.98739497885
1.9760000000000046E-8     99719.80491655355        99719.80491655355
1.9840000000000047E-8     106630.92267245858       106630.92267245858
1.992000000000005E-8      112991.94056529638       112991.94056529638
2.000000000000005E-8      118822.5556994043        118822.5556994043
2.008000000000005E-8      124081.62887099091       124081.62887099091
2.0160000000000053E-8     128747.72422814179       128747.72422814179
2.0240000000000054E-8     132851.68540841033       132851.68540841033
2.0320000000000056E-8     136427.72824119404       136427.72824119404
2.0400000000000057E-8     139472.94908603566       139472.94908603566
2.0480000000000058E-8     141973.29292241792       141973.29292241792
2.056000000000006E-8      143944.80398161244       143944.80398161244
2.064000000000006E-8      145429.0446756869        145429.0446756869
2.0720000000000062E-8     146458.61438000458       146458.61438000458
2.0800000000000064E-8     147042.14605566976       147042.14605566976
2.0880000000000065E-8     147183.04373065857       147183.04373065857
2.0960000000000067E-8     146906.34996808757       146906.34996808757
2.1040000000000068E-8     146259.66228112942       146259.66228112942
2.112000000000007E-8      145281.74353680154       145281.74353680154
2.120000000000007E-8      143974.63356168944       143974.63356168944
2.1280000000000072E-8     142318.45343678707       142318.45343678707
2.1360000000000073E-8     140319.26057052342       140319.26057052342
2.1440000000000075E-8     138038.15090842283       138038.15090842283
2.1520000000000076E-8     135564.31917786182       135564.31917786182
2.1600000000000078E-8     132952.10618902597       132952.10618902597
2.168000000000008E-8      130186.75410578914       130186.75410578914
2.176000000000008E-8      127219.99379797543       127219.99379797543
2.1840000000000082E-8     124037.36485267336       124037.36485267336
2.1920000000000083E-8     120683.61716603274       120683.61716603274
2.2000000000000085E-8     117231.5180761173        117231.5180761173
2.2080000000000086E-8     113741.64794952457       113741.64794952457
2.2160000000000087E-8     110242.26862442335       110242.26862442335
2.224000000000009E-8      106721.26695263063       106721.26695263063
2.232000000000009E-8      103138.6040137609        103138.6040137609
2.240000000000009E-8      99475.45809433528        99475.45809433528
2.2480000000000093E-8     95778.22438827393        95778.22438827393
2.2560000000000094E-8     92128.32915944146        92128.32915944146
2.2640000000000096E-8     88559.14728310113        88559.14728310113
2.2720000000000097E-8     85030.40091903646        85030.40091903646
2.2800000000000098E-8     81501.23053629034        81501.23053629034
2.28800000000001E-8       78000.56903682667        78000.56903682667
2.29600000000001E-8       74595.93495099526        74595.93495099526
2.3040000000000102E-8     71310.41119066892        71310.41119066892
2.3120000000000104E-8     68106.57445072822        68106.57445072822
2.3200000000000105E-8     64949.25919152044        64949.25919152044
2.3280000000000107E-8     61850.16503347487        61850.16503347487
2.3360000000000108E-8     58842.87071580783        58842.87071580783
2.344000000000011E-8      55943.36415241922        55943.36415241922
2.352000000000011E-8      53152.39792858403        53152.39792858403
2.3600000000000112E-8     50475.539506757515       50475.539506757515
2.3680000000000113E-8     47917.648879217995       47917.648879217995
2.3760000000000115E-8     45466.67127724789        45466.67127724789
2.3840000000000116E-8     43102.743663293266       43102.743663293266
2.3920000000000118E-8     40820.262398370505       40820.262398370505
2.400000000000012E-8      38627.76016821317        38627.76016821317
2.408000000000012E-8      36532.65035100252        36532.65035100252
2.4160000000000122E-8     34540.967781266016       34540.967781266016
2.4240000000000123E-8     32664.399105702494       32664.399105702494
2.4320000000000124E-8     30908.497239202476       30908.497239202476
2.4400000000000126E-8     29256.894526681193       29256.894526681193
2.4480000000000127E-8     27682.304436045364       27682.304436045364
2.456000000000013E-8      26169.605798644152       26169.605798644152
2.464000000000013E-8      24720.318737881204       24720.318737881204
2.472000000000013E-8      23349.560398805643       23349.560398805643
2.4800000000000133E-8     22088.509876121592       22088.509876121592
2.4880000000000134E-8     20962.111855343242       20962.111855343242
2.4960000000000135E-8     19941.09041675229        19941.09041675229
2.5040000000000137E-8     18944.701506458783       18944.701506458783
2.5120000000000138E-8     17927.20484747173        17927.20484747173
2.520000000000014E-8      16942.0077766073         16942.0077766073
2.528000000000014E-8      16078.275224675963       16078.275224675963
2.5360000000000142E-8     15343.351004413917       15343.351004413917
2.5440000000000144E-8     14654.578856523107       14654.578856523107
2.5520000000000145E-8     13953.34196831324        13953.34196831324
2.5600000000000147E-8     13278.025697044204       13278.025697044204
2.5680000000000148E-8     12694.234721305362       12694.234721305362
2.576000000000015E-8      12191.424729469898       12191.424729469898
2.584000000000015E-8      11701.070715452217       11701.070715452217
2.5920000000000152E-8     11203.539447837811       11203.539447837811
2.6000000000000153E-8     10756.210371472256       10756.210371472256
2.6080000000000155E-8     10400.23798661579        10400.23798661579
2.6160000000000156E-8     10091.127080475497       10091.127080475497
2.6240000000000158E-8     9758.71668908021         9758.71668908021
2.632000000000016E-8      9403.932131085769        9403.932131085769
2.640000000000016E-8      9089.709830903053        9089.709830903053
2.6480000000000162E-8     8847.065852174626        8847.065852174626
2.6560000000000163E-8     8637.886988649656        8637.886988649656
2.6640000000000164E-8     8420.918916719183        8420.918916719183
2.6720000000000166E-8     8212.922399571806        8212.922399571806
2.6800000000000167E-8     8053.131084042527        8053.131084042527
2.688000000000017E-8      7930.456538667349        7930.456538667349
2.696000000000017E-8      7788.550465722226        7788.550465722226
2.704000000000017E-8      7604.881795507127        7604.881795507127
2.7120000000000173E-8     7427.390309090435        7427.390309090435
2.7200000000000174E-8     7313.197946561884        7313.197946561884
2.7280000000000175E-8     7256.179765564822        7256.179765564822
2.7360000000000177E-8     7202.775943571806        7202.775943571806
2.7440000000000178E-8     7124.399431681549        7124.399431681549
2.752000000000018E-8      7040.599886724583        7040.599886724583
2.760000000000018E-8      6973.334682253056        6973.334682253056
2.7680000000000182E-8     6913.292329674956        6913.292329674956
2.7760000000000184E-8     6843.863022732335        6843.863022732335
2.7840000000000185E-8     6773.441800983125        6773.441800983125
2.7920000000000186E-8     6723.947816435876        6723.947816435876
2.8000000000000188E-8     6697.37668666574         6697.37668666574
2.808000000000019E-8      6671.780137008281        6671.780137008281
2.816000000000019E-8      6633.086325103931        6633.086325103931
2.8240000000000192E-8     6598.823641209827        6598.823641209827
2.8320000000000193E-8     6594.556651303062        6594.556651303062
2.8400000000000195E-8     6605.8091513970285       6605.8091513970285
2.8480000000000196E-8     6578.60839797876         6578.60839797876
2.8560000000000198E-8     6490.617941238648        6490.617941238648
2.86400000000002E-8       6401.535601859573        6401.535601859573
2.87200000000002E-8       6392.471581115172        6392.471581115172
2.88000000000002E-8       6459.648044735564        6459.648044735564
2.8880000000000203E-8     6513.301776670044        6513.301776670044
2.8960000000000204E-8     6492.192975495861        6492.192975495861
2.9040000000000206E-8     6436.034069993498        6436.034069993498
2.9120000000000207E-8     6420.645433081457        6420.645433081457
2.920000000000021E-8      6455.634936142025        6455.634936142025
2.928000000000021E-8      6480.869262241073        6480.869262241073
2.936000000000021E-8      6448.199010847968        6448.199010847968
2.9440000000000213E-8     6374.61469112118         6374.61469112118
2.9520000000000214E-8     6316.20634801247         6316.20634801247
2.9600000000000215E-8     6312.203784539741        6312.203784539741
2.9680000000000217E-8     6360.0573255271875       6360.0573255271875
2.9760000000000218E-8     6430.483367994602        6430.483367994602
2.984000000000022E-8      6492.462836556471        6492.462836556471
2.992000000000022E-8      6522.850337626774        6522.850337626774
3.0000000000000216E-8     6506.426127349465        6506.426127349465
3.0080000000000214E-8     6444.969613271385        6444.969613271385
3.016000000000021E-8      6365.902676831364        6365.902676831364
3.024000000000021E-8      6303.882878489111        6303.882878489111
3.032000000000021E-8      6270.446934470878        6270.446934470878
3.0400000000000206E-8     6260.2358396309555       6260.2358396309555
3.0480000000000204E-8     6286.591491612655        6286.591491612655
3.05600000000002E-8       6375.96881244678         6375.96881244678
3.06400000000002E-8       6508.645517040228        6508.645517040228
3.07200000000002E-8       6597.408899401534        6597.408899401534
3.0800000000000196E-8     6562.733782619487        6562.733782619487
3.0880000000000194E-8     6422.243291013205        6422.243291013205
3.096000000000019E-8      6279.499593311587        6279.499593311587
3.104000000000019E-8      6225.361153954421        6225.361153954421
3.112000000000019E-8      6267.885353782294        6267.885353782294
3.120000000000019E-8      6354.5975131259875       6354.5975131259875
3.1280000000000185E-8     6437.613145493874        6437.613145493874
3.136000000000018E-8      6502.530524350032        6502.530524350032
3.144000000000018E-8      6545.822382389517        6545.822382389517
3.152000000000018E-8      6549.025072913606        6549.025072913606
3.160000000000018E-8      6492.697305715966        6492.697305715966
3.1680000000000175E-8     6395.144919940674        6395.144919940674
3.176000000000017E-8      6321.40329373147         6321.40329373147
3.184000000000017E-8      6336.370377409459        6336.370377409459
3.192000000000017E-8      6443.149320780723        6443.149320780723
3.200000000000017E-8      6573.73487342441         6573.73487342441
3.2080000000000165E-8     6647.061606649366        6647.061606649366
3.2160000000000164E-8     6635.888834681046        6635.888834681046
3.224000000000016E-8      6576.823965718704        6576.823965718704
3.232000000000016E-8      6525.492375530932        6525.492375530932
3.240000000000016E-8      6515.201001420945        6515.201001420945
3.2480000000000156E-8     6554.422991412866        6554.422991412866